# HLPW-5 Force/Moment Grid Convergence DATA SUBMITTAL FORM Case 1, May 05, 2023
 
TITLE = "A-004"
 
#                                                   <------ Optional ----->
VARIABLES = "N" "CL" "CD" "CM" "DT" "TSTART" "TAVG" "CLp" "CLv" "CDp" "CDv"
 
ZONE T="A-004 case1 wing-body verification ALPHA=11 freeair FT"
331972   9.495710e-01 7.488517e-02 1.928402e-01   -999 -999 -999  9.497323e-01 -1.613210e-04  7.061105e-02  4.274119e-03
674198   1.033230e+00 6.113480e-02 2.149781e-01   -999 -999 -999  1.033499e+00 -2.694328e-04  5.372459e-02  7.410211e-03
1333347   1.054469e+00 6.129584e-02 2.188238e-01   -999 -999 -999  1.054856e+00 -3.868930e-04  5.246757e-02  8.828270e-03
2722890   1.060448e+00 6.213693e-02 2.214741e-01   -999 -999 -999  1.060920e+00 -4.724352e-04  5.184458e-02  1.029234e-02
5410912   1.065960e+00 6.285582e-02 2.228367e-01   -999 -999 -999  1.066509e+00 -5.490544e-04  5.153129e-02  1.132452e-02
10704546   1.067681e+00 6.313578e-02 2.233909e-01   -999 -999 -999  1.068264e+00 -5.826372e-04  5.145662e-02  1.167916e-02
20800142   1.067839e+00 6.315454e-02 2.234835e-01   -999 -999 -999  1.068430e+00 -5.910637e-04  5.141785e-02  1.173668e-02
