# HLPW-5 Force/Moment Grid Convergence DATA SUBMITTAL FORM Case 1, May 05, 2023
 
TITLE = "A-004"
 
#                                                   <------ Optional ----->
VARIABLES = "N" "CL" "CD" "CM" "DT" "TSTART" "TAVG" "CLp" "CLv" "CDp" "CDv"
 
ZONE T="A-004 case1 wing-body verification ALPHA=11 freeair FT"
333178   9.629487e-01 6.780577e-02 2.024453e-01   -999 -999 -999  9.630623e-01 -1.136583e-04  6.344025e-02  4.365513e-03
678761   1.054774e+00 6.045125e-02 2.197455e-01   -999 -999 -999  1.055040e+00 -2.652316e-04  5.266541e-02  7.785840e-03
1346062   1.063757e+00 6.141534e-02 2.217303e-01   -999 -999 -999  1.064140e+00 -3.829789e-04  5.223984e-02  9.175506e-03
2730627   1.070899e+00 6.280344e-02 2.233390e-01   -999 -999 -999  1.071391e+00 -4.925923e-04  5.179899e-02  1.100446e-02
5405073   1.071838e+00 6.308188e-02 2.236786e-01   -999 -999 -999  1.072362e+00 -5.244739e-04  5.160643e-02  1.147545e-02
10733299   1.074298e+00 6.341382e-02 2.242810e-01   -999 -999 -999  1.074865e+00 -5.675508e-04  5.150460e-02  1.190922e-02
# 19596296   1.074370e+00 6.340045e-02 2.243120e-01   -999 -999 -999  1.074941e+00 -5.713054e-04  5.145948e-02  1.194097e-02
